##File Type: Far field
##File Format: 7
##Source: IEC-62232-panel-antenna
##Date: 2021-08-13 14:27:01  
** File exported by Altair Feko - Solver (par) Version 2019.3-660 from 2020-02-04


#Configuration Name: humanStandardConfiguration1
#Request Name: horCutFF
#Frequency:   9.00000000E+008
#Coordinate System: Spherical
#No. of Theta Samples: 1
#No. of Phi Samples: 181
#Result Type: Directivity
#No. of Header Lines: 1
#       "Theta"             "Phi"           "Re(Etheta)"       "Im(Etheta)"        "Re(Ephi)"         "Im(Ephi)"   "Directivity(Theta)" "Directivity(Phi)" "Directivity(Total)"
    9.00000000E+001   -9.00000000E+001    1.28270048E+001    1.96915913E+002   -2.53677753E-006   -1.45337170E-006    5.11519813E+000   -1.51470401E+002    5.11519813E+000
    9.00000000E+001   -8.90000000E+001    1.00852927E+001    2.01995389E+002   -4.20664855E-005    1.46680662E-004    5.32883497E+000   -1.17118081E+002    5.32883497E+000
    9.00000000E+001   -8.80000000E+001    7.30417750E+000    2.07153941E+002   -7.77754355E-005    2.95796518E-004    5.54245306E+000   -1.11078620E+002    5.54245306E+000
    9.00000000E+001   -8.70000000E+001    4.48670706E+000    2.12393448E+002   -1.09754735E-004    4.45756670E-004    5.75595295E+000   -1.07551232E+002    5.75595295E+000
    9.00000000E+001   -8.60000000E+001    1.63600637E+000    2.17715773E+002   -1.38101896E-004    5.96426881E-004    5.96923617E+000   -1.05050844E+002    5.96923617E+000
    9.00000000E+001   -8.50000000E+001   -1.24472098E+000    2.23122758E+002   -1.62920221E-004    7.47675999E-004    6.18220560E+000   -1.03113075E+002    6.18220560E+000
    9.00000000E+001   -8.40000000E+001   -4.15219174E+000    2.28616211E+002   -1.84318198E-004    8.99375729E-004    6.39476589E+000   -1.01531305E+002    6.39476589E+000
    9.00000000E+001   -8.30000000E+001   -7.08304229E+000    2.34197902E+002   -2.02408909E-004    1.05140037E-003    6.60682369E+000   -1.00195399E+002    6.60682369E+000
    9.00000000E+001   -8.20000000E+001   -1.00338282E+001    2.39869547E+002   -2.17309462E-004    1.20362652E-003    6.81828791E+000   -9.90396646E+001    6.81828791E+000
    9.00000000E+001   -8.10000000E+001   -1.30010245E+001    2.45632803E+002   -2.29140435E-004    1.35593278E-003    7.02906988E+000   -9.80217561E+001    7.02906988E+000
    9.00000000E+001   -8.00000000E+001   -1.59810258E+001    2.51489257E+002   -2.38025349E-004    1.50819939E-003    7.23908347E+000   -9.71127853E+001    7.23908347E+000
    9.00000000E+001   -7.90000000E+001   -1.89701477E+001    2.57440410E+002   -2.44090157E-004    1.66030788E-003    7.44824519E+000   -9.62921685E+001    7.44824519E+000
    9.00000000E+001   -7.80000000E+001   -2.19646285E+001    2.63487673E+002   -2.47462768E-004    1.81214067E-003    7.65647418E+000   -9.55447267E+001    7.65647418E+000
    9.00000000E+001   -7.70000000E+001   -2.49606312E+001    2.69632350E+002   -2.48272591E-004    1.96358066E-003    7.86369228E+000   -9.48589516E+001    7.86369228E+000
    9.00000000E+001   -7.60000000E+001   -2.79542463E+001    2.75875626E+002   -2.46650116E-004    2.11451077E-003    8.06982395E+000   -9.42259155E+001    8.06982395E+000
    9.00000000E+001   -7.50000000E+001   -3.09414961E+001    2.82218561E+002   -2.42726518E-004    2.26481352E-003    8.27479630E+000   -9.36385591E+001    8.27479630E+000
    9.00000000E+001   -7.40000000E+001   -3.39183384E+001    2.88662068E+002   -2.36633302E-004    2.41437052E-003    8.47853899E+000   -9.30912092E+001    8.47853899E+000
    9.00000000E+001   -7.30000000E+001   -3.68806719E+001    2.95206909E+002   -2.28501978E-004    2.56306198E-003    8.68098414E+000   -9.25792432E+001    8.68098414E+000
    9.00000000E+001   -7.20000000E+001   -3.98243422E+001    3.01853676E+002   -2.18463767E-004    2.71076621E-003    8.88206630E+000   -9.20988498E+001    8.88206630E+000
    9.00000000E+001   -7.10000000E+001   -4.27451486E+001    3.08602782E+002   -2.06649351E-004    2.85735909E-003    9.08172233E+000   -9.16468542E+001    9.08172233E+000
    9.00000000E+001   -7.00000000E+001   -4.56388518E+001    3.15454447E+002   -1.93188651E-004    3.00271353E-003    9.27989131E+000   -9.12205889E+001    9.27989131E+000
    9.00000000E+001   -6.90000000E+001   -4.85011820E+001    3.22408683E+002   -1.78210641E-004    3.14669895E-003    9.47651442E+000   -9.08177957E+001    9.47651442E+000
    9.00000000E+001   -6.80000000E+001   -5.13278489E+001    3.29465286E+002   -1.61843200E-004    3.28918070E-003    9.67153486E+000   -9.04365503E+001    9.67153486E+000
    9.00000000E+001   -6.70000000E+001   -5.41145514E+001    3.36623818E+002   -1.44212992E-004    3.43001959E-003    9.86489774E+000   -9.00752046E+001    9.86489774E+000
    9.00000000E+001   -6.60000000E+001   -5.68569890E+001    3.43883598E+002   -1.25445381E-004    3.56907128E-003    1.00565500E+001   -8.97323407E+001    1.00565500E+001
    9.00000000E+001   -6.50000000E+001   -5.95508736E+001    3.51243690E+002   -1.05664378E-004    3.70618584E-003    1.02464402E+001   -8.94067344E+001    1.02464402E+001
    9.00000000E+001   -6.40000000E+001   -6.21919421E+001    3.58702891E+002   -8.49926077E-005    3.84120719E-003    1.04345186E+001   -8.90973266E+001    1.04345186E+001
    9.00000000E+001   -6.30000000E+001   -6.47759703E+001    3.66259718E+002   -6.35513061E-005    3.97397269E-003    1.06207369E+001   -8.88031989E+001    1.06207369E+001
    9.00000000E+001   -6.20000000E+001   -6.72987871E+001    3.73912399E+002   -4.14603370E-005    4.10431265E-003    1.08050483E+001   -8.85235551E+001    1.08050483E+001
    9.00000000E+001   -6.10000000E+001   -6.97562893E+001    3.81658863E+002   -1.88382253E-005    4.23204999E-003    1.09874072E+001   -8.82577051E+001    1.09874072E+001
    9.00000000E+001   -6.00000000E+001   -7.21444574E+001    3.89496733E+002    4.19779606E-006    4.35699983E-003    1.11677692E+001   -8.80050521E+001    1.11677692E+001
    9.00000000E+001   -5.90000000E+001   -7.44593718E+001    3.97423310E+002    2.75317307E-005    4.47896925E-003    1.13460913E+001   -8.77650812E+001    1.13460913E+001
    9.00000000E+001   -5.80000000E+001   -7.66972296E+001    4.05435575E+002    5.10487590E-005    4.59775704E-003    1.15223313E+001   -8.75373512E+001    1.15223313E+001
    9.00000000E+001   -5.70000000E+001   -7.88543618E+001    4.13530175E+002    7.46351796E-005    4.71315353E-003    1.16964482E+001   -8.73214863E+001    1.16964482E+001
    9.00000000E+001   -5.60000000E+001   -8.09272508E+001    4.21703419E+002    9.81783566E-005    4.82494050E-003    1.18684017E+001   -8.71171699E+001    1.18684017E+001
    9.00000000E+001   -5.50000000E+001   -8.29125478E+001    4.29951277E+002    1.21566678E-004    4.93289124E-003    1.20381525E+001   -8.69241393E+001    1.20381525E+001
    9.00000000E+001   -5.40000000E+001   -8.48070915E+001    4.38269371E+002    1.44689530E-004    5.03677056E-003    1.22056620E+001   -8.67421812E+001    1.22056620E+001
    9.00000000E+001   -5.30000000E+001   -8.66079251E+001    4.46652975E+002    1.67437293E-004    5.13633502E-003    1.23708926E+001   -8.65711274E+001    1.23708926E+001
    9.00000000E+001   -5.20000000E+001   -8.83123146E+001    4.55097014E+002    1.89701364E-004    5.23133323E-003    1.25338069E+001   -8.64108521E+001    1.25338069E+001
    9.00000000E+001   -5.10000000E+001   -8.99177664E+001    4.63596064E+002    2.11374206E-004    5.32150625E-003    1.26943686E+001   -8.62612688E+001    1.26943686E+001
    9.00000000E+001   -5.00000000E+001   -9.14220443E+001    4.72144355E+002    2.32349437E-004    5.40658807E-003    1.28525416E+001   -8.61223278E+001    1.28525416E+001
    9.00000000E+001   -4.90000000E+001   -9.28231862E+001    4.80735768E+002    2.52521954E-004    5.48630627E-003    1.30082905E+001   -8.59940150E+001    1.30082905E+001
    9.00000000E+001   -4.80000000E+001   -9.41195205E+001    4.89363847E+002    2.71788097E-004    5.56038273E-003    1.31615804E+001   -8.58763495E+001    1.31615804E+001
    9.00000000E+001   -4.70000000E+001   -9.53096808E+001    4.98021799E+002    2.90045860E-004    5.62853452E-003    1.33123768E+001   -8.57693829E+001    1.33123768E+001
    9.00000000E+001   -4.60000000E+001   -9.63926209E+001    5.06702503E+002    3.07195141E-004    5.69047489E-003    1.34606455E+001   -8.56731985E+001    1.34606455E+001
    9.00000000E+001   -4.50000000E+001   -9.73676275E+001    5.15398521E+002    3.23138040E-004    5.74591432E-003    1.36063530E+001   -8.55879103E+001    1.36063530E+001
    9.00000000E+001   -4.40000000E+001   -9.82343329E+001    5.24102101E+002    3.37779207E-004    5.79456175E-003    1.37494657E+001   -8.55136627E+001    1.37494657E+001
    9.00000000E+001   -4.30000000E+001   -9.89927249E+001    5.32805197E+002    3.51026223E-004    5.83612590E-003    1.38899506E+001   -8.54506309E+001    1.38899506E+001
    9.00000000E+001   -4.20000000E+001   -9.96431568E+001    5.41499474E+002    3.62790032E-004    5.87031669E-003    1.40277751E+001   -8.53990208E+001    1.40277751E+001
    9.00000000E+001   -4.10000000E+001   -1.00186355E+002    5.50176330E+002    3.72985409E-004    5.89684677E-003    1.41629066E+001   -8.53590696E+001    1.41629066E+001
    9.00000000E+001   -4.00000000E+001   -1.00623423E+002    5.58826903E+002    3.81531459E-004    5.91543310E-003    1.42953129E+001   -8.53310471E+001    1.42953129E+001
    9.00000000E+001   -3.90000000E+001   -1.00955848E+002    5.67442096E+002    3.88352152E-004    5.92579864E-003    1.44249621E+001   -8.53152564E+001    1.44249621E+001
    9.00000000E+001   -3.80000000E+001   -1.01185503E+002    5.76012588E+002    3.93376879E-004    5.92767414E-003    1.45518225E+001   -8.53120361E+001    1.45518225E+001
    9.00000000E+001   -3.70000000E+001   -1.01314643E+002    5.84528859E+002    3.96541021E-004    5.92079990E-003    1.46758626E+001   -8.53217623E+001    1.46758626E+001
    9.00000000E+001   -3.60000000E+001   -1.01345906E+002    5.92981208E+002    3.97786544E-004    5.90492768E-003    1.47970514E+001   -8.53448513E+001    1.47970514E+001
    9.00000000E+001   -3.50000000E+001   -1.01282309E+002    6.01359772E+002    3.97062576E-004    5.87982252E-003    1.49153577E+001   -8.53817627E+001    1.49153577E+001
    9.00000000E+001   -3.40000000E+001   -1.01127239E+002    6.09654554E+002    3.94326000E-004    5.84526471E-003    1.50307510E+001   -8.54330036E+001    1.50307510E+001
    9.00000000E+001   -3.30000000E+001   -1.00884445E+002    6.17855441E+002    3.89542022E-004    5.80105167E-003    1.51432008E+001   -8.54991333E+001    1.51432008E+001
    9.00000000E+001   -3.20000000E+001   -1.00558027E+002    6.25952232E+002    3.82684719E-004    5.74699978E-003    1.52526769E+001   -8.55807691E+001    1.52526769E+001
    9.00000000E+001   -3.10000000E+001   -1.00152421E+002    6.33934661E+002    3.73737565E-004    5.68294634E-003    1.53591496E+001   -8.56785931E+001    1.53591496E+001
    9.00000000E+001   -3.00000000E+001   -9.96723856E+001    6.41792421E+002    3.62693914E-004    5.60875129E-003    1.54625893E+001   -8.57933605E+001    1.54625893E+001
    9.00000000E+001   -2.90000000E+001   -9.91229801E+001    6.49515193E+002    3.49557438E-004    5.52429897E-003    1.55629668E+001   -8.59259095E+001    1.55629668E+001
    9.00000000E+001   -2.80000000E+001   -9.85095464E+001    6.57092669E+002    3.34342517E-004    5.42949984E-003    1.56602533E+001   -8.60771733E+001    1.56602533E+001
    9.00000000E+001   -2.70000000E+001   -9.78376852E+001    6.64514583E+002    3.17074570E-004    5.32429195E-003    1.57544204E+001   -8.62481947E+001    1.57544204E+001
    9.00000000E+001   -2.60000000E+001   -9.71132316E+001    6.71770732E+002    2.97790315E-004    5.20864250E-003    1.58454402E+001   -8.64401434E+001    1.58454402E+001
    9.00000000E+001   -2.50000000E+001   -9.63422282E+001    6.78851006E+002    2.76537969E-004    5.08254908E-003    1.59332851E+001   -8.66543376E+001    1.59332851E+001
    9.00000000E+001   -2.40000000E+001   -9.55308961E+001    6.85745417E+002    2.53377370E-004    4.94604092E-003    1.60179281E+001   -8.68922704E+001    1.60179281E+001
    9.00000000E+001   -2.30000000E+001   -9.46856051E+001    6.92444119E+002    2.28380015E-004    4.79917993E-003    1.60993428E+001   -8.71556426E+001    1.60993428E+001
    9.00000000E+001   -2.20000000E+001   -9.38128415E+001    6.98937441E+002    2.01629029E-004    4.64206154E-003    1.61775034E+001   -8.74464033E+001    1.61775034E+001
    9.00000000E+001   -2.10000000E+001   -9.29191750E+001    7.05215907E+002    1.73219045E-004    4.47481547E-003    1.62523845E+001   -8.77668015E+001    1.62523845E+001
    9.00000000E+001   -2.00000000E+001   -9.20112246E+001    7.11270267E+002    1.43256001E-004    4.29760620E-003    1.63239617E+001   -8.81194516E+001    1.63239617E+001
    9.00000000E+001   -1.90000000E+001   -9.10956233E+001    7.17091518E+002    1.11856860E-004    4.11063338E-003    1.63922111E+001   -8.85074174E+001    1.63922111E+001
    9.00000000E+001   -1.80000000E+001   -9.01789819E+001    7.22670930E+002    7.91492417E-005    3.91413190E-003    1.64571097E+001   -8.89343223E+001    1.64571097E+001
    9.00000000E+001   -1.70000000E+001   -8.92678533E+001    7.28000069E+002    4.52709750E-005    3.70837193E-003    1.65186352E+001   -8.94044941E+001    1.65186352E+001
    9.00000000E+001   -1.60000000E+001   -8.83686954E+001    7.33070819E+002    1.03695765E-005    3.49365863E-003    1.65767663E+001   -8.99231593E+001    1.65767663E+001
    9.00000000E+001   -1.50000000E+001   -8.74878348E+001    7.37875405E+002   -2.53983513E-005    3.27033171E-003    1.66314825E+001   -9.04967089E+001    1.66314825E+001
    9.00000000E+001   -1.40000000E+001   -8.66314305E+001    7.42406414E+002   -6.18677919E-005    3.03876484E-003    1.66827644E+001   -9.11330653E+001    1.66827644E+001
    9.00000000E+001   -1.30000000E+001   -8.58054385E+001    7.46656813E+002   -9.88660550E-005    2.79936474E-003    1.67305934E+001   -9.18422035E+001    1.67305934E+001
    9.00000000E+001   -1.20000000E+001   -8.50155768E+001    7.50619972E+002   -1.36213582E-004    2.55257022E-003    1.67749521E+001   -9.26369034E+001    1.67749521E+001
    9.00000000E+001   -1.10000000E+001   -8.42672917E+001    7.54289676E+002   -1.73724809E-004    2.29885092E-003    1.68158242E+001   -9.35338594E+001    1.68158242E+001
    9.00000000E+001   -1.00000000E+001   -8.35657254E+001    7.57660147E+002   -2.11209088E-004    2.03870594E-003    1.68531945E+001   -9.45553513E+001    1.68531945E+001
    9.00000000E+001   -9.00000000E+000   -8.29156850E+001    7.60726055E+002   -2.48471654E-004    1.77266224E-003    1.68870490E+001   -9.57317875E+001    1.68870490E+001
    9.00000000E+001   -8.00000000E+000   -8.23216139E+001    7.63482535E+002   -2.85314642E-004    1.50127294E-003    1.69173749E+001   -9.71055198E+001    1.69173749E+001
    9.00000000E+001   -7.00000000E+000   -8.17875644E+001    7.65925199E+002   -3.21538133E-004    1.22511536E-003    1.69441606E+001   -9.87359662E+001    1.69441606E+001
    9.00000000E+001   -6.00000000E+000   -8.13171729E+001    7.68050149E+002   -3.56941249E-004    9.44789003E-004    1.69673959E+001   -1.00702663E+002    1.69673959E+001
    9.00000000E+001   -5.00000000E+000   -8.09136380E+001    7.69853984E+002   -3.91323257E-004    6.60913363E-004    1.69870718E+001   -1.03080726E+002    1.69870718E+001
    9.00000000E+001   -4.00000000E+000   -8.05797005E+001    7.71333812E+002   -4.24484707E-004    3.74125592E-004    1.70031807E+001   -1.05735174E+002    1.70031807E+001
    9.00000000E+001   -3.00000000E+000   -8.03176262E+001    7.72487255E+002   -4.56228580E-004    8.50780691E-005    1.70157162E+001   -1.07456697E+002    1.70157162E+001
    9.00000000E+001   -2.00000000E+000   -8.01291923E+001    7.73312459E+002   -4.86361441E-004   -2.05564142E-004    1.70246736E+001   -1.06335816E+002    1.70246736E+001
    9.00000000E+001   -1.00000000E+000   -8.00156761E+001    7.73808095E+002   -5.14694595E-004   -4.97125927E-004    1.70300493E+001   -1.03695728E+002    1.70300493E+001
    9.00000000E+001    0.00000000E+000   -7.99778471E+001    7.73973365E+002   -5.41045240E-004   -7.88924830E-004    1.70318412E+001   -1.01173968E+002    1.70318412E+001
    9.00000000E+001    1.00000000E+000   -8.00159621E+001    7.73808003E+002   -5.65237594E-004   -1.08027383E-003    1.70300486E+001   -9.90672014E+001    1.70300486E+001
    9.00000000E+001    2.00000000E+000   -8.01297637E+001    7.73312275E+002   -5.87104009E-004   -1.37048414E-003    1.70246722E+001   -9.73195727E+001    1.70246722E+001
    9.00000000E+001    3.00000000E+000   -8.03184819E+001    7.72486979E+002   -6.06486053E-004   -1.65886811E-003    1.70157142E+001   -9.58477222E+001    1.70157142E+001
    9.00000000E+001    4.00000000E+000   -8.05808388E+001    7.71333446E+002   -6.23235550E-004   -1.94474202E-003    1.70031779E+001   -9.45869839E+001    1.70031779E+001
    9.00000000E+001    5.00000000E+000   -8.09150567E+001    7.69853530E+002   -6.37215574E-004   -2.22742902E-003    1.69870684E+001   -9.34910996E+001    1.69870684E+001
    9.00000000E+001    6.00000000E+000   -8.13188691E+001    7.68049609E+002   -6.48301388E-004   -2.50626194E-003    1.69673919E+001   -9.25269937E+001    1.69673919E+001
    9.00000000E+001    7.00000000E+000   -8.17895348E+001    7.65924574E+002   -6.56381318E-004   -2.78058611E-003    1.69441560E+001   -9.16705774E+001    1.69441560E+001
    9.00000000E+001    8.00000000E+000   -8.23238547E+001    7.63481828E+002   -6.61357558E-004   -3.04976211E-003    1.69173697E+001   -9.09039118E+001    1.69173697E+001
    9.00000000E+001    9.00000000E+000   -8.29181919E+001    7.60725269E+002   -6.63146890E-004   -3.31316847E-003    1.68870433E+001   -9.02133443E+001    1.68870433E+001
    9.00000000E+001    1.00000000E+001   -8.35684935E+001    7.57659286E+002   -6.61681324E-004   -3.57020430E-003    1.68531882E+001   -8.95882754E+001    1.68531882E+001
    9.00000000E+001    1.10000000E+001   -8.42703159E+001    7.54288744E+002   -6.56908638E-004   -3.82029171E-003    1.68158175E+001   -8.90203275E+001    1.68158175E+001
    9.00000000E+001    1.20000000E+001   -8.50188515E+001    7.50618973E+002   -6.48792827E-004   -4.06287825E-003    1.67749449E+001   -8.85027731E+001    1.67749449E+001
    9.00000000E+001    1.30000000E+001   -8.58089576E+001    7.46655751E+002   -6.37314440E-004   -4.29743910E-003    1.67305858E+001   -8.80301323E+001    1.67305858E+001
    9.00000000E+001    1.40000000E+001   -8.66351876E+001    7.42405292E+002   -6.22470812E-004   -4.52347915E-003    1.66827565E+001   -8.75978852E+001    1.66827565E+001
    9.00000000E+001    1.50000000E+001   -8.74918233E+001    7.37874230E+002   -6.04276189E-004   -4.74053492E-003    1.66314743E+001   -8.72022603E+001    1.66314743E+001
    9.00000000E+001    1.60000000E+001   -8.83729084E+001    7.33069596E+002   -5.82761727E-004   -4.94817622E-003    1.65767579E+001   -8.68400790E+001    1.65767579E+001
    9.00000000E+001    1.70000000E+001   -8.92722836E+001    7.27998803E+002   -5.57975395E-004   -5.14600776E-003    1.65186267E+001   -8.65086369E+001    1.65186267E+001
    9.00000000E+001    1.80000000E+001   -9.01836220E+001    7.22669627E+002   -5.29981747E-004   -5.33367038E-003    1.64571011E+001   -8.62056139E+001    1.64571011E+001
    9.00000000E+001    1.90000000E+001   -9.11004657E+001    7.17090183E+002   -4.98861593E-004   -5.51084219E-003    1.63922025E+001   -8.59290041E+001    1.63922025E+001
    9.00000000E+001    2.00000000E+001   -9.20162617E+001    7.11268907E+002   -4.64711555E-004   -5.67723940E-003    1.63239532E+001   -8.56770609E+001    1.63239532E+001
    9.00000000E+001    2.10000000E+001   -9.29243989E+001    7.05214527E+002   -4.27643521E-004   -5.83261701E-003    1.62523761E+001   -8.54482538E+001    1.62523761E+001
    9.00000000E+001    2.20000000E+001   -9.38182445E+001    6.98936048E+002   -3.87783992E-004   -5.97676921E-003    1.61774952E+001   -8.52412333E+001    1.61774952E+001
    9.00000000E+001    2.30000000E+001   -9.46911793E+001    6.92442721E+002   -3.45273343E-004   -6.10952953E-003    1.60993350E+001   -8.50548031E+001    1.60993350E+001
    9.00000000E+001    2.40000000E+001   -9.55366337E+001    6.85744019E+002   -3.00264988E-004   -6.23077082E-003    1.60179207E+001   -8.48878973E+001    1.60179207E+001
    9.00000000E+001    2.50000000E+001   -9.63481214E+001    6.78849615E+002   -2.52924471E-004   -6.34040499E-003    1.59332781E+001   -8.47395616E+001    1.59332781E+001
    9.00000000E+001    2.60000000E+001   -9.71192728E+001    6.71769354E+002   -2.03428480E-004   -6.43838245E-003    1.58454338E+001   -8.46089380E+001    1.58454338E+001
    9.00000000E+001    2.70000000E+001   -9.78438667E+001    6.64513226E+002   -1.51963804E-004   -6.52469150E-003    1.57544147E+001   -8.44952521E+001    1.57544147E+001
    9.00000000E+001    2.80000000E+001   -9.85158610E+001    6.57091339E+002   -9.87262314E-005   -6.59935733E-003    1.56602483E+001   -8.43978022E+001    1.56602483E+001
    9.00000000E+001    2.90000000E+001   -9.91294206E+001    6.49513897E+002   -4.39194112E-005   -6.66244097E-003    1.55629627E+001   -8.43159507E+001    1.55629627E+001
    9.00000000E+001    3.00000000E+001   -9.96789450E+001    6.41791165E+002    1.22463242E-005   -6.71403804E-003    1.54625861E+001   -8.42491165E+001    1.54625861E+001
    9.00000000E+001    3.10000000E+001   -1.00159093E+002    6.33933453E+002    6.95551554E-005   -6.75427725E-003    1.53591475E+001   -8.41967687E+001    1.53591475E+001
    9.00000000E+001    3.20000000E+001   -1.00564804E+002    6.25951078E+002    1.27786985E-004   -6.78331888E-003    1.52526760E+001   -8.41584213E+001    1.52526760E+001
    9.00000000E+001    3.30000000E+001   -1.00891322E+002    6.17854346E+002    1.86718650E-004   -6.80135302E-003    1.51432011E+001   -8.41336287E+001    1.51432011E+001
    9.00000000E+001    3.40000000E+001   -1.01134210E+002    6.09653525E+002    2.46125123E-004   -6.80859779E-003    1.50307527E+001   -8.41219819E+001    1.50307527E+001
    9.00000000E+001    3.50000000E+001   -1.01289369E+002    6.01358815E+002    3.05780703E-004   -6.80529741E-003    1.49153610E+001   -8.41231054E+001    1.49153610E+001
    9.00000000E+001    3.60000000E+001   -1.01353049E+002    5.92980329E+002    3.65460166E-004   -6.79172018E-003    1.47970562E+001   -8.41366545E+001    1.47970562E+001
    9.00000000E+001    3.70000000E+001   -1.01321864E+002    5.84528064E+002    4.24939895E-004   -6.76815650E-003    1.46758692E+001   -8.41623130E+001    1.46758692E+001
    9.00000000E+001    3.80000000E+001   -1.01192799E+002    5.76011881E+002    4.83998951E-004   -6.73491669E-003    1.45518309E+001   -8.41997912E+001    1.45518309E+001
    9.00000000E+001    3.90000000E+001   -1.00963215E+002    5.67441482E+002    5.42420107E-004   -6.69232893E-003    1.44249724E+001   -8.42488247E+001    1.44249724E+001
    9.00000000E+001    4.00000000E+001   -1.00630856E+002    5.58826388E+002    5.99990804E-004   -6.64073716E-003    1.42953253E+001   -8.43091730E+001    1.42953253E+001
    9.00000000E+001    4.10000000E+001   -1.00193852E+002    5.50175917E+002    6.56504058E-004   -6.58049889E-003    1.41629211E+001   -8.43806186E+001    1.41629211E+001
    9.00000000E+001    4.20000000E+001   -9.96507155E+001    5.41499169E+002    7.11759288E-004   -6.51198320E-003    1.40277919E+001   -8.44629661E+001    1.40277919E+001
    9.00000000E+001    4.30000000E+001   -9.90003424E+001    5.32805001E+002    7.65563063E-004   -6.43556863E-003    1.38899699E+001   -8.45560421E+001    1.38899699E+001
    9.00000000E+001    4.40000000E+001   -9.82420072E+001    5.24102020E+002    8.17729781E-004   -6.35164119E-003    1.37494874E+001   -8.46596945E+001    1.37494874E+001
    9.00000000E+001    4.50000000E+001   -9.73753572E+001    5.15398556E+002    8.68082247E-004   -6.26059244E-003    1.36063773E+001   -8.47737930E+001    1.36063773E+001
    9.00000000E+001    4.60000000E+001   -9.64004046E+001    5.06702658E+002    9.16452180E-004   -6.16281761E-003    1.34606726E+001   -8.48982286E+001    1.34606726E+001
    9.00000000E+001    4.70000000E+001   -9.53175179E+001    4.98022075E+002    9.62680626E-004   -6.05871380E-003    1.33124067E+001   -8.50329146E+001    1.33124067E+001
    9.00000000E+001    4.80000000E+001   -9.41274104E+001    4.89364246E+002    1.00661828E-003   -5.94867830E-003    1.31616132E+001   -8.51777867E+001    1.31616132E+001
    9.00000000E+001    4.90000000E+001   -9.28311288E+001    4.80736291E+002    1.04812571E-003   -5.83310698E-003    1.30083263E+001   -8.53328038E+001    1.30083263E+001
    9.00000000E+001    5.00000000E+001   -9.14300397E+001    4.72145003E+002    1.08707355E-003   -5.71239277E-003    1.28525805E+001   -8.54979493E+001    1.28525805E+001
    9.00000000E+001    5.10000000E+001   -8.99258152E+001    4.63596838E+002    1.12334249E-003   -5.58692429E-003    1.26944107E+001   -8.56732322E+001    1.26944107E+001
    9.00000000E+001    5.20000000E+001   -8.83204174E+001    4.55097913E+002    1.15682334E-003   -5.45708453E-003    1.25338524E+001   -8.58586885E+001    1.25338524E+001
    9.00000000E+001    5.30000000E+001   -8.66160829E+001    4.46653998E+002    1.18741687E-003   -5.32324966E-003    1.23709414E+001   -8.60543831E+001    1.23709414E+001
    9.00000000E+001    5.40000000E+001   -8.48153055E+001    4.38270518E+002    1.21503365E-003   -5.18578799E-003    1.22057143E+001   -8.62604120E+001    1.22057143E+001
    9.00000000E+001    5.50000000E+001   -8.29208194E+001    4.29952546E+002    1.23959387E-003   -5.04505897E-003    1.20382083E+001   -8.64769047E+001    1.20382083E+001
    9.00000000E+001    5.60000000E+001   -8.09355814E+001    4.21704808E+002    1.26102693E-003   -4.90141233E-003    1.18684610E+001   -8.67040275E+001    1.18684610E+001
    9.00000000E+001    5.70000000E+001   -7.88627532E+001    4.13531681E+002    1.27927118E-003   -4.75518738E-003    1.16965111E+001   -8.69419865E+001    1.16965111E+001
    9.00000000E+001    5.80000000E+001   -7.67056835E+001    4.05437195E+002    1.29427345E-003   -4.60671230E-003    1.15223979E+001   -8.71910321E+001    1.15223979E+001
    9.00000000E+001    5.90000000E+001   -7.44678900E+001    3.97425041E+002    1.30598863E-003   -4.45630363E-003    1.13461616E+001   -8.74514637E+001    1.13461616E+001
    9.00000000E+001    6.00000000E+001   -7.21530418E+001    3.89498570E+002    1.31437913E-003   -4.30426581E-003    1.11678431E+001   -8.77236353E+001    1.11678431E+001
    9.00000000E+001    6.10000000E+001   -6.97649419E+001    3.81660803E+002    1.31941443E-003   -4.15089087E-003    1.09874847E+001   -8.80079621E+001    1.09874847E+001
    9.00000000E+001    6.20000000E+001   -6.73075097E+001    3.73914436E+002    1.32107048E-003   -3.99645809E-003    1.08051295E+001   -8.83049285E+001    1.08051295E+001
    9.00000000E+001    6.30000000E+001   -6.47847648E+001    3.66261847E+002    1.31932919E-003   -3.84123392E-003    1.06208217E+001   -8.86150975E+001    1.06208217E+001
    9.00000000E+001    6.40000000E+001   -6.22008101E+001    3.58705107E+002    1.31417782E-003   -3.68547180E-003    1.04346068E+001   -8.89391215E+001    1.04346068E+001
    9.00000000E+001    6.50000000E+001   -5.95598169E+001    3.51245986E+002    1.30560850E-003   -3.52941220E-003    1.02465318E+001   -8.92777561E+001    1.02465318E+001
    9.00000000E+001    6.60000000E+001   -5.68660092E+001    3.43885967E+002    1.29361758E-003   -3.37328263E-003    1.00566449E+001   -8.96318759E+001    1.00566449E+001
    9.00000000E+001    6.70000000E+001   -5.41236498E+001    3.36626254E+002    1.27820517E-003   -3.21729778E-003    9.86499581E+000   -9.00024942E+001    9.86499581E+000
    9.00000000E+001    6.80000000E+001   -5.13370267E+001    3.29467781E+002    1.25937460E-003   -3.06165969E-003    9.67163589E+000   -9.03907868E+001    9.67163590E+000
    9.00000000E+001    6.90000000E+001   -4.85104402E+001    3.22411231E+002    1.23713191E-003   -2.90655801E-003    9.47661822E+000   -9.07981218E+001    9.47661822E+000
    9.00000000E+001    7.00000000E+001   -4.56481912E+001    3.15457038E+002    1.21148539E-003   -2.75217022E-003    9.27999764E+000   -9.12260957E+001    9.27999764E+000
    9.00000000E+001    7.10000000E+001   -4.27545698E+001    3.08605409E+002    1.18244520E-003   -2.59866201E-003    9.08183092E+000   -9.16765803E+001    9.08183092E+000
    9.00000000E+001    7.20000000E+001   -3.98338454E+001    3.01856330E+002    1.15002289E-003   -2.44618765E-003    8.88217683E+000   -9.21517804E+001    8.88217683E+000
    9.00000000E+001    7.30000000E+001   -3.68902571E+001    2.95209582E+002    1.11423113E-003   -2.29489035E-003    8.68109626E+000   -9.26543097E+001    8.68109626E+000
    9.00000000E+001    7.40000000E+001   -3.39280053E+001    2.88664750E+002    1.07508336E-003   -2.14490274E-003    8.47865231E+000   -9.31872882E+001    8.47865231E+000
    9.00000000E+001    7.50000000E+001   -3.09512441E+001    2.82221244E+002    1.03259354E-003   -1.99634734E-003    8.27491039E+000   -9.37544726E+001    8.27491039E+000
    9.00000000E+001    7.60000000E+001   -2.79640744E+001    2.75878300E+002    9.86775906E-004   -1.84933702E-003    8.06993832E+000   -9.43604297E+001    8.06993832E+000
    9.00000000E+001    7.70000000E+001   -2.49705381E+001    2.69635005E+002    9.37644830E-004   -1.70397549E-003    7.86380640E+000   -9.50107761E+001    7.86380640E+000
    9.00000000E+001    7.80000000E+001   -2.19746126E+001    2.63490301E+002    8.85214667E-004   -1.56035791E-003    7.65658747E+000   -9.57125122E+001    7.65658747E+000
    9.00000000E+001    7.90000000E+001   -1.89802069E+001    2.57443001E+002    8.29499677E-004   -1.41857134E-003    7.44835701E+000   -9.64745029E+001    7.44835701E+000