##File Type: Far field
##File Format: 7
##Source: IEC-62232-panel-antenna
##Date: 2021-08-13 14:27:01  
** File exported by Altair Feko - Solver (par) Version 2019.3-660 from 2020-02-04


#Configuration Name: humanStandardConfiguration1
#Request Name: verCutFF
#Frequency:   9.00000000E+008
#Coordinate System: Spherical
#No. of Theta Samples: 181
#No. of Phi Samples: 1
#Result Type: Directivity
#No. of Header Lines: 1
#       "Theta"             "Phi"           "Re(Etheta)"       "Im(Etheta)"        "Re(Ephi)"         "Im(Ephi)"   "Directivity(Theta)" "Directivity(Phi)" "Directivity(Total)"
    0.00000000E+000    0.00000000E+000   -2.64130066E-006    1.55799825E-005    6.18933650E-004    2.06298611E-005   -1.36814407E+002   -1.04951103E+002   -1.04948276E+002
    1.00000000E+000    0.00000000E+000   -2.79353285E-001    6.91227573E-001    6.21958745E-004    8.68828865E-006   -4.33393573E+001   -1.04912728E+002   -4.33393543E+001
    2.00000000E+000    0.00000000E+000   -5.49998003E-001    1.40508015E+000    6.29457938E-004   -7.20516885E-006   -3.72156572E+001   -1.04808904E+002   -3.72156565E+001
    3.00000000E+000    0.00000000E+000   -8.10747102E-001    2.14226355E+000    6.41256894E-004   -2.72708825E-005   -3.35900241E+001   -1.04640319E+002   -3.35900237E+001
    4.00000000E+000    0.00000000E+000   -1.06063020E+000    2.90307252E+000    6.57161874E-004   -5.17450108E-005   -3.09875153E+001   -1.04408517E+002   -3.09875151E+001
    5.00000000E+000    0.00000000E+000   -1.29884804E+000    3.68705835E+000    6.76954613E-004   -8.08737147E-005   -2.89471739E+001   -1.04116070E+002   -2.89471738E+001
    6.00000000E+000    0.00000000E+000   -1.52472568E+000    4.49264712E+000    7.00385614E-004   -1.14905930E-004   -2.72653093E+001   -1.03766713E+002   -2.72653092E+001
    7.00000000E+000    0.00000000E+000   -1.73766699E+000    5.31672593E+000    7.27165982E-004   -1.54084536E-004   -2.58351592E+001   -1.03365387E+002   -2.58351591E+001
    8.00000000E+000    0.00000000E+000   -1.93710965E+000    6.15420230E+000    7.56957986E-004   -1.98635751E-004   -2.45950976E+001   -1.02918160E+002   -2.45950975E+001
    9.00000000E+000    0.00000000E+000   -2.12247999E+000    6.99754573E+000    7.89364596E-004   -2.48756602E-004   -2.35076590E+001   -1.02432051E+002   -2.35076589E+001
    1.00000000E+001    0.00000000E+000   -2.29314652E+000    7.83632608E+000    8.23918349E-004   -3.04600330E-004   -2.25497286E+001   -1.01914756E+002   -2.25497286E+001
    1.10000000E+001    0.00000000E+000   -2.44837159E+000    8.65676950E+000    8.60069986E-004   -3.66259682E-004   -2.17074871E+001   -1.01374356E+002   -2.17074871E+001
    1.20000000E+001    0.00000000E+000   -2.58726061E+000    9.44136035E+000    8.97177456E-004   -4.33748070E-004   -2.09736469E+001   -1.00819031E+002   -2.09736469E+001
    1.30000000E+001    0.00000000E+000   -2.70870940E+000    1.01685257E+001    9.34495986E-004   -5.06978755E-004   -2.03459178E+001   -1.00256830E+002   -2.03459177E+001
    1.40000000E+001    0.00000000E+000   -2.81135086E+000    1.08124471E+001    9.71170064E-004   -5.85742302E-004   -1.98262189E+001   -9.96955013E+001   -1.98262189E+001
    1.50000000E+001    0.00000000E+000   -2.89350362E+000    1.13430531E+001    1.00622830E-003   -6.69682793E-004   -1.94204216E+001   -9.91423927E+001   -1.94204216E+001
    1.60000000E+001    0.00000000E+000   -2.95312689E+000    1.17262518E+001    1.03858223E-003   -7.58273451E-004   -1.91385627E+001   -9.86044191E+001   -1.91385627E+001
    1.70000000E+001    0.00000000E+000   -2.98778704E+000    1.19244686E+001    1.06703022E-003   -8.50792652E-004   -1.89955926E+001   -9.80880735E+001   -1.89955925E+001
    1.80000000E+001    0.00000000E+000   -2.99464359E+000    1.18975541E+001    1.09026750E-003   -9.46301499E-004   -1.90128740E+001   -9.75994760E+001   -1.90128739E+001
    1.90000000E+001    0.00000000E+000   -2.97046317E+000    1.16041237E+001    1.10690349E-003   -1.04362451E-003   -1.92209133E+001   -9.71444463E+001   -1.92209132E+001
    2.00000000E+001    0.00000000E+000   -2.91167164E+000    1.10033785E+001    1.11548715E-003   -1.14133518E-003   -1.96643600E+001   -9.67285898E+001   -1.96643600E+001
    2.10000000E+001    0.00000000E+000   -2.81445442E+000    1.00574390E+001    1.11454107E-003   -1.23774853E-003   -2.04116251E+001   -9.63573929E+001   -2.04116249E+001
    2.20000000E+001    0.00000000E+000   -2.67491492E+000    8.73419321E+000    1.10260429E-003   -1.33092279E-003   -2.15749963E+001   -9.60363214E+001   -2.15749961E+001
    2.30000000E+001    0.00000000E+000   -2.48929875E+000    7.01061935E+000    1.07828371E-003   -1.41867269E-003   -2.33579923E+001   -9.57709211E+001   -2.33579920E+001
    2.40000000E+001    0.00000000E+000   -2.25428798E+000    4.87649594E+000    1.04031293E-003   -1.49859657E-003   -2.61855387E+001   -9.55669181E+001   -2.61855382E+001
    2.50000000E+001    0.00000000E+000   -1.96736470E+000    2.33834664E+000    9.87616970E-004   -1.56811941E-003   -3.10860874E+001   -9.54303162E+001   -3.10860858E+001
    2.60000000E+001    0.00000000E+000   -1.62723590E+000   -5.76599115E-001    9.19380452E-004   -1.62455333E-003   -3.60461150E+001   -9.53674846E+001   -3.60461099E+001
    2.70000000E+001    0.00000000E+000   -1.23430305E+000   -3.81672341E+000    8.35116154E-004   -1.66517661E-003   -2.87230085E+001   -9.53852217E+001   -2.87230076E+001
    2.80000000E+001    0.00000000E+000   -7.91150021E-001   -7.30297989E+000    7.34730250E-004   -1.68733088E-003   -2.34681331E+001   -9.54907652E+001   -2.34681328E+001
    2.90000000E+001    0.00000000E+000   -3.03012235E-001   -1.09269235E+001    6.18580079E-004   -1.68853526E-003   -2.00155104E+001   -9.56916853E+001   -2.00155103E+001
    3.00000000E+001    0.00000000E+000    2.21820016E-001   -1.45502795E+001    4.87520089E-004   -1.66661437E-003   -1.75303710E+001   -9.59955315E+001   -1.75303709E+001
    3.10000000E+001    0.00000000E+000    7.71719539E-001   -1.80065325E+001    3.42931673E-004   -1.61983563E-003   -1.56722354E+001   -9.64089726E+001   -1.56722354E+001
    3.20000000E+001    0.00000000E+000    1.33162204E+000   -2.11049861E+001    1.86733036E-004   -1.54704909E-003   -1.42838506E+001   -9.69359085E+001   -1.42838506E+001
    3.30000000E+001    0.00000000E+000    1.88316840E+000   -2.36376587E+001    2.13660043E-005   -1.44782183E-003   -1.32892402E+001   -9.75735588E+001   -1.32892401E+001
    3.40000000E+001    0.00000000E+000    2.40514377E+000   -2.53892313E+001   -1.50242204E-004   -1.32255669E-003   -1.26570164E+001   -9.83048342E+001   -1.26570164E+001
    3.50000000E+001    0.00000000E+000    2.87425335E+000   -2.61500474E+001   -3.24742804E-004   -1.17258472E-003   -1.23872044E+001   -9.90849786E+001   -1.23872043E+001
    3.60000000E+001    0.00000000E+000    3.26625175E+000   -2.57318798E+001   -4.98453861E-004   -1.00021992E-003   -1.25099598E+001   -9.98235437E+001   -1.25099598E+001
    3.70000000E+001    0.00000000E+000    3.55741144E+000   -2.39858341E+001   -6.67470582E-004   -8.08765416E-004   -1.30952153E+001   -1.00376387E+002   -1.30952153E+001
    3.80000000E+001    0.00000000E+000    3.72627636E+000   -2.08213762E+001   -8.27793205E-004   -6.02462094E-004   -1.42817031E+001   -1.00584356E+002   -1.42817030E+001
    3.90000000E+001    0.00000000E+000    3.75560311E+000   -1.62250799E+001   -9.75466785E-004   -3.86373227E-004   -1.63584035E+001   -1.00371645E+002   -1.63584035E+001
    4.00000000E+001    0.00000000E+000    3.63434727E+000   -1.02773299E+001   -1.10672616E-003   -1.66202917E-004   -2.00394732E+001   -9.98111468E+001   -2.00394732E+001
    4.10000000E+001    0.00000000E+000    3.35951138E+000   -3.16494075E+000   -1.21813877E-003    5.19487707E-005   -2.75043653E+001   -9.90669803E+001   -2.75043650E+001
    4.20000000E+001    0.00000000E+000    2.93764137E+000    4.81248152E+000   -1.30673802E-003    2.61885096E-004   -2.57659406E+001   -9.82940153E+001   -2.57659403E+001
    4.30000000E+001    0.00000000E+000    2.38574504E+000    1.32445428E+001   -1.37014011E-003    4.57651187E-004   -1.82093900E+001   -9.75941474E+001   -1.82093899E+001
    4.40000000E+001    0.00000000E+000    1.73141664E+000    2.16222222E+001   -1.40663855E-003    6.33890575E-004   -1.40630418E+001   -9.70222176E+001   -1.40630418E+001
    4.50000000E+001    0.00000000E+000    1.01199065E+000    2.93613815E+001   -1.41527137E-003    7.86193357E-004   -1.14281211E+001   -9.66039826E+001   -1.14281211E+001
    4.60000000E+001    0.00000000E+000    2.72617538E-001    3.58379191E+001   -1.39585804E-003    9.11406243E-004   -9.70169996E+000   -9.63497949E+001   -9.70169995E+000
    4.70000000E+001    0.00000000E+000   -4.36745984E-001    4.04336968E+001   -1.34900447E-003    1.00787379E-003   -8.65343127E+000   -9.62623226E+001   -8.65343127E+000
    4.80000000E+001    0.00000000E+000   -1.06531574E+000    4.25910045E+001   -1.27607595E-003    1.07558223E-003   -8.19973303E+000   -9.63401698E+001   -8.19973302E+000
    4.90000000E+001    0.00000000E+000   -1.56617283E+000    4.18718709E+001   -1.17913981E-003    1.11618259E-003   -8.34428784E+000   -9.65789669E+001   -8.34428784E+000
    5.00000000E+001    0.00000000E+000   -1.90127757E+000    3.80171421E+001   -1.06088023E-003    1.13287868E-003   -9.17836901E+000   -9.69706535E+001   -9.17836900E+000
    5.10000000E+001    0.00000000E+000   -2.04629232E+000    3.09991258E+001   -9.24489361E-004    1.13017695E-003   -1.09429348E+001   -9.75009746E+001   -1.09429348E+001
    5.20000000E+001    0.00000000E+000   -1.99462146E+000    2.10609343E+001   -7.73539472E-004    1.11350863E-003   -1.42804741E+001   -9.81447263E+001   -1.42804741E+001
    5.30000000E+001    0.00000000E+000   -1.76005484E+000    8.73566984E+000   -6.11841833E-004    1.08874910E-003   -2.17900703E+001   -9.88583265E+001   -2.17900702E+001
    5.40000000E+001    0.00000000E+000   -1.37745555E+000   -5.16056818E+000   -4.43298820E-004    1.06167228E-003   -2.62359646E+001   -9.95710364E+001   -2.62359644E+001
    5.50000000E+001    0.00000000E+000   -9.01070332E-001   -1.95661157E+001   -2.71756306E-004    1.03738876E-003   -1.49495137E+001   -1.00181727E+002   -1.49495136E+001
    5.60000000E+001    0.00000000E+000   -4.00262921E-001   -3.32432045E+001   -1.00863865E-004    1.01982280E-003   -1.03541198E+001   -1.00576037E+002   -1.03541198E+001
    5.70000000E+001    0.00000000E+000    4.72366500E-002   -4.48775906E+001    6.60496101E-005    1.01128377E-003   -7.74821149E+000   -1.00672860E+002   -7.74821149E+000
    5.80000000E+001    0.00000000E+000    3.64135403E-001   -5.32025415E+001    2.26077715E-004    1.01218276E-003   -6.26995592E+000   -1.00472198E+002   -6.26995592E+000
    5.90000000E+001    0.00000000E+000    4.83655296E-001   -5.71373278E+001    3.76809637E-004    1.02093243E-003   -5.65009725E+000   -1.00054232E+002   -5.65009725E+000
    6.00000000E+001    0.00000000E+000    3.59798934E-001   -5.59267410E+001    5.16370291E-004    1.03405160E-003   -5.83623694E+000   -9.95310642E+001   -5.83623694E+000
    6.10000000E+001    0.00000000E+000   -2.35039958E-002   -4.92655190E+001    6.43425656E-004    1.04647417E-003   -6.93794471E+000   -9.90016131E+001   -6.93794471E+000
    6.20000000E+001    0.00000000E+000   -6.45761379E-001   -3.73904619E+001    7.57154508E-004    1.05203948E-003   -9.33229513E+000   -9.85355331E+001   -9.33229512E+000
    6.30000000E+001    0.00000000E+000   -1.44709834E+000   -2.11239103E+001    8.57190806E-004    1.04411954E-003   -1.42729870E+001   -9.81762694E+001   -1.42729870E+001
    6.40000000E+001    0.00000000E+000   -2.33027615E+000   -1.85540905E+000    9.43543804E-004    1.01632070E-003   -3.13082344E+001   -9.79486016E+001   -3.13082335E+001
    6.50000000E+001    0.00000000E+000   -3.16810805E+000    1.85462079E+001    1.01650494E-003    9.63186513E-004   -1.52987898E+001   -9.78640076E+001   -1.52987898E+001
    6.60000000E+001    0.00000000E+000   -3.81620918E+000    3.78907149E+001    1.07655133E-003    8.80825495E-004   -9.17431912E+000   -9.79224095E+001   -9.17431912E+000
    6.70000000E+001    0.00000000E+000   -4.13030299E+000    5.38861130E+001    1.12425508E-003    7.67394114E-004   -6.13382952E+000   -9.81104202E+001   -6.13382952E+000
    6.80000000E+001    0.00000000E+000   -3.98658195E+000    6.44026858E+001    1.16020575E-003    6.23380252E-004   -4.59411823E+000   -9.83966125E+001   -4.59411822E+000
    6.90000000E+001    0.00000000E+000   -3.30298348E+000    6.77559872E+001    1.18495014E-003    4.51654720E-004   -4.15954512E+000   -9.87256796E+001   -4.15954511E+000
    7.00000000E+001    0.00000000E+000   -2.05879465E+000    6.29770755E+001    1.19895064E-003    2.57285012E-004   -4.80051828E+000   -9.90172579E+001   -4.80051828E+000
    7.10000000E+001    0.00000000E+000   -3.09829547E-001    5.00353220E+001    1.20256003E-003    4.71332100E-005   -6.80310644E+000   -9.91800053E+001   -6.80310643E+000
    7.20000000E+001    0.00000000E+000    1.80340529E+000    2.99802105E+001    1.19600902E-003   -1.70715061E-004   -1.12364272E+001   -9.91465243E+001   -1.12364272E+001
    7.30000000E+001    0.00000000E+000    4.05660829E+000    4.97413746E+000    1.17940240E-003   -3.87624613E-004   -2.46400336E+001   -9.89100961E+001   -2.46400334E+001
    7.40000000E+001    0.00000000E+000    6.15282129E+000   -2.18018054E+001    1.15272078E-003   -5.95111244E-004   -1.36861442E+001   -9.85281655E+001   -1.36861442E+001
    7.50000000E+001    0.00000000E+000    7.74385365E+000   -4.63735259E+001    1.11582777E-003   -7.85492044E-004   -7.34395839E+000   -9.80888484E+001   -7.34395839E+000
    7.60000000E+001    0.00000000E+000    8.46076130E+000   -6.43197794E+001    1.06848516E-003   -9.52418307E-004   -4.54741134E+000   -9.76738936E+001   -4.54741134E+000
    7.70000000E+001    0.00000000E+000    7.95088963E+000   -7.12107147E+001    1.01038118E-003   -1.09124201E-003   -3.68409389E+000   -9.73415855E+001   -3.68409389E+000
    7.80000000E+001    0.00000000E+000    5.91791086E+000   -6.30973047E+001    9.41178098E-004   -1.19919075E-003   -4.75055465E+000   -9.71266799E+001   -4.75055465E+000
    7.90000000E+001    0.00000000E+000    2.16055230E+000   -3.69993835E+001    8.60583354E-004   -1.27535207E-003   -9.41013340E+000   -9.70465921E+001   -9.41013339E+000
    8.00000000E+001    0.00000000E+000   -3.39454972E+000    8.66477495E+000    7.68445029E-004   -1.32049238E-003   -2.14135632E+001   -9.71074116E+001   -2.14135631E+001
    8.10000000E+001    0.00000000E+000   -1.06701496E+001    7.37623441E+001    6.64865834E-004   -1.33675470E-003   -3.34217310E+000   -9.73077847E+001   -3.34217310E+000
    8.20000000E+001    0.00000000E+000   -1.94292838E+001    1.56289079E+002    5.50323104E-004   -1.32729012E-003    3.15637057E+000   -9.76405432E+001    3.15637057E+000
    8.30000000E+001    0.00000000E+000   -2.92818615E+001    2.52401746E+002    4.25775968E-004   -1.29587931E-003    7.31110198E+000   -9.80923040E+001    7.31110198E+000
    8.40000000E+001    0.00000000E+000   -3.97073852E+001    3.56649274E+002    2.92737350E-004   -1.24659266E-003    1.03095215E+001   -9.86411937E+001    1.03095215E+001
    8.50000000E+001    0.00000000E+000   -5.00923909E+001    4.62388896E+002    1.53288989E-004   -1.18352228E-003    1.25620140E+001   -9.92530285E+001    1.25620140E+001
    8.60000000E+001    0.00000000E+000   -5.97794360E+001    5.62350836E+002    1.00231840E-005   -1.11059956E-003    1.42601412E+001   -9.98773033E+001    1.42601412E+001
    8.70000000E+001    0.00000000E+000   -6.81229845E+001    6.49295767E+002   -1.34094894E-004   -1.03149199E-003    1.55075897E+001   -1.00446706E+002    1.55075897E+001
    8.80000000E+001    0.00000000E+000   -7.45465683E+001    7.16695995E+002   -2.75937074E-004   -9.49556391E-004    1.63646264E+001   -1.00886313E+002    1.63646264E+001
    8.90000000E+001    0.00000000E+000   -7.85952592E+001    7.59366199E+002   -4.12472620E-004   -8.67815649E-004    1.68664946E+001   -1.01135672E+002    1.68664946E+001
    9.00000000E+001    0.00000000E+000   -7.99778471E+001    7.73973365E+002   -5.41045240E-004   -7.88924830E-004    1.70318412E+001   -1.01173968E+002    1.70318412E+001
    9.10000000E+001    0.00000000E+000   -7.85941478E+001    7.59368129E+002   -6.59625035E-004   -7.15100006E-004    1.68665151E+001   -1.01027724E+002    1.68665151E+001
    9.20000000E+001    0.00000000E+000   -7.45444489E+001    7.16699630E+002   -7.66993036E-004   -6.47998032E-004    1.63646673E+001   -1.00753427E+002    1.63646673E+001
    9.30000000E+001    0.00000000E+000   -6.81200560E+001    6.49300687E+002   -8.62823028E-004   -5.88554553E-004    1.55076508E+001   -1.00411117E+002    1.55076508E+001
    9.40000000E+001    0.00000000E+000   -5.97759774E+001    5.62356469E+002   -9.47639556E-004   -5.36806675E-004    1.42602216E+001   -1.00047293E+002    1.42602216E+001
    9.50000000E+001    0.00000000E+000   -5.00887396E+001    4.62394590E+002   -1.02265027E-003   -4.91741643E-004    1.25621124E+001   -9.96909183E+001    1.25621124E+001
    9.60000000E+001    0.00000000E+000   -3.97039100E+001    3.56654371E+002   -1.08947171E-003   -4.51219828E-004    1.03096348E+001   -9.93569473E+001    1.03096348E+001
    9.70000000E+001    0.00000000E+000   -2.92789326E+001    2.52405651E+002   -1.14978659E-003   -4.12017049E-004    7.31122304E+000   -9.90517962E+001    7.31122304E+000
    9.80000000E+001    0.00000000E+000   -1.94272417E+001    1.56291330E+002   -1.20498379E-003   -3.70017414E-004    3.15647990E+000   -9.87778445E+001    3.15647990E+000
    9.90000000E+001    0.00000000E+000   -1.06692761E+001    7.37626575E+001   -1.25583726E-003   -3.20565163E-004   -3.34215153E+000   -9.85360004E+001   -3.34215153E+000
    1.00000000E+002    0.00000000E+000   -3.39504168E+000    8.66306816E+000   -1.30227571E-003   -2.58956261E-004   -2.14148790E+001   -9.83263322E+001   -2.14148789E+001
    1.01000000E+002    0.00000000E+000    2.15860149E+000   -3.70029889E+001   -1.34328141E-003   -1.81022393E-004   -9.40931656E+000   -9.81473039E+001   -9.40931655E+000
    1.02000000E+002    0.00000000E+000    5.91452244E+000   -6.31025061E+001   -1.37693708E-003   -8.37370331E-005   -4.74988826E+000   -9.79944930E+001   -4.74988825E+000
    1.03000000E+002    0.00000000E+000    7.94620065E+000   -7.12170701E+001   -1.40061678E-003    3.42400450E-005   -3.68339131E+000   -9.78598258E+001   -3.68339131E+000
    1.04000000E+002    0.00000000E+000    8.45501578E+000   -6.43267626E+001   -1.41129479E-003    1.72163985E-004   -4.54658467E+000   -9.77322985E+001   -4.54658467E+000
    1.05000000E+002    0.00000000E+000    7.73738408E+000   -4.63805872E+001   -1.40592922E-003    3.27022698E-004   -7.34286848E+000   -9.76007035E+001   -7.34286847E+000
    1.06000000E+002    0.00000000E+000    6.14602181E+000   -2.18084315E+001   -1.38186693E-003    4.93616676E-004   -1.36844068E+001   -9.74579357E+001   -1.36844067E+001
    1.07000000E+002    0.00000000E+000    4.04990196E+000    4.96837278E+000   -1.33721471E-003    6.64911806E-004   -2.46518225E+001   -9.73052697E+001   -2.46518222E+001
    1.08000000E+002    0.00000000E+000    1.79720826E+000    2.99756087E+001   -1.27112873E-003    8.32638457E-004   -1.12378632E+001   -9.71544641E+001   -1.12378632E+001
    1.09000000E+002    0.00000000E+000   -3.15143534E-001    5.00320393E+001   -1.18398768E-003    9.88074684E-004   -6.80367054E+000   -9.70264722E+001   -6.80367053E+000
    1.10000000E+002    0.00000000E+000   -2.06292610E+000    6.29751201E+001   -1.07743248E-003    1.12292393E-003   -4.80076906E+000   -9.69473903E+001   -4.80076906E+000
    1.11000000E+002    0.00000000E+000   -3.30573230E+000    6.77552333E+001   -9.54274131E-004    1.23018232E-003   -4.15962439E+000   -9.69435029E+001   -4.15962439E+000
    1.12000000E+002    0.00000000E+000   -3.98786350E+000    6.44029008E+001   -8.18287275E-004    1.30489004E-003   -4.59407868E+000   -9.70370521E+001   -4.59407868E+000
    1.13000000E+002    0.00000000E+000   -4.13015362E+000    5.38869939E+001   -6.73919628E-004    1.34467480E-003   -6.13369020E+000   -9.72432705E+001   -6.13369019E+000
    1.14000000E+002    0.00000000E+000   -3.81478087E+000    3.78919285E+001   -5.25953668E-004    1.35002199E-003   -9.17407635E+000   -9.75682964E+001   -9.17407634E+000
    1.15000000E+002    0.00000000E+000   -3.16565281E+000    1.85474304E+001   -3.79158143E-004    1.32424026E-003   -1.52984243E+001   -9.80072794E+001   -1.52984243E+001
    1.16000000E+002    0.00000000E+000   -2.32712198E+000   -1.85445820E+000   -2.37962938E-004    1.27312908E-003   -3.13171607E+001   -9.85422230E+001   -3.13171598E+001
    1.17000000E+002    0.00000000E+000   -1.44361924E+000   -2.11234429E+001   -1.06183490E-004    1.20439076E-003   -1.42732758E+001   -9.91398322E+001   -1.42732758E+001
    1.18000000E+002    0.00000000E+000   -6.42344340E-001   -3.73906056E+001    1.31881106E-005    1.12685788E-003   -9.33227542E+000   -9.97508292E+001   -9.33227542E+000
    1.19000000E+002    0.00000000E+000   -2.05162178E-002   -4.92663133E+001    1.18117274E-004    1.04962611E-003   -6.93780490E+000   -1.00313462E+002   -6.93780490E+000
    1.20000000E+002    0.00000000E+000    3.62039662E-001   -5.59281429E+001    2.07586105E-004    9.81188784E-004   -5.83601698E+000   -1.00763589E+002   -5.83601698E+000
    1.21000000E+002    0.00000000E+000    4.84904533E-001   -5.71392257E+001    2.81583277E-004    9.28664172E-004   -5.64980717E+000   -1.01049652E+002   -5.64980716E+000
    1.22000000E+002    0.00000000E+000    3.64238499E-001   -5.32047746E+001    3.41033929E-004    8.97190623E-004   -6.26959125E+000   -1.01145008E+002   -6.26959124E+000
    1.23000000E+002    0.00000000E+000    4.61367182E-002   -4.48799719E+001    3.87680645E-004    8.89541288E-004   -7.74775083E+000   -1.01050235E+002   -7.74775083E+000
    1.24000000E+002    0.00000000E+000   -4.02525611E-001   -3.32455428E+001    4.23927033E-004    9.05982785E-004   -1.03535018E+001   -1.00786554E+002   -1.03535018E+001
    1.25000000E+002    0.00000000E+000   -9.04366856E-001   -1.95682363E+001    4.52655018E-004    9.44374573E-004   -1.49485069E+001   -1.00387771E+002   -1.49485069E+001
    1.26000000E+002    0.00000000E+000   -1.38158337E+000   -5.16232855E+000    4.77026440E-004    1.00048111E-003   -2.62314669E+001   -9.98949964E+001   -2.62314667E+001
    1.27000000E+002    0.00000000E+000   -1.76475753E+000    8.73436889E+000    5.00279100E-004    1.06844997E-003   -2.17904067E+001   -9.93528373E+001   -2.17904066E+001
    1.28000000E+002    0.00000000E+000   -1.99961113E+000    2.10601435E+001    5.25527181E-004    1.14139697E-003   -1.42806040E+001   -9.88050796E+001   -1.42806040E+001
    1.29000000E+002    0.00000000E+000   -2.05127253E+000    3.09988475E+001    5.55575834E-004    1.21203523E-003   -1.09429206E+001   -9.82902371E+001   -1.09429206E+001
    1.30000000E+002    0.00000000E+000   -1.90596491E+000    3.80173352E+001    5.92759407E-004    1.27328760E-003   -9.17827152E+000   -9.78383616E+001   -9.17827151E+000
    1.31000000E+002    0.00000000E+000   -1.57031555E+000    4.18724594E+001    6.38812003E-004    1.31883045E-003   -8.34413380E+000   -9.74696885E+001   -8.34413379E+000
    1.32000000E+002    0.00000000E+000   -1.06870823E+000    4.25918882E+001    6.94777622E-004    1.34352942E-003   -8.19953561E+000   -9.71946506E+001   -8.19953560E+000
    1.33000000E+002    0.00000000E+000   -4.39238566E-001    4.04347627E+001    7.60964884E-004    1.34374236E-003   -8.65319652E+000   -9.70144492E+001   -8.65319652E+000
    1.34000000E+002    0.00000000E+000    2.71113838E-001    3.58390532E+001    8.36948456E-004    1.31747981E-003   -9.70142787E+000   -9.69216138E+001   -9.70142786E+000
    1.35000000E+002    0.00000000E+000    1.01150401E+000    2.93624786E+001    9.21615980E-004    1.26442700E-003   -1.14278019E+001   -9.69004238E+001   -1.14278019E+001
    1.36000000E+002    0.00000000E+000    1.73191850E+000    2.16231940E+001    1.01325592E-003    1.18584249E-003   -1.40626378E+001   -9.69275466E+001   -1.40626378E+001
    1.37000000E+002    0.00000000E+000    2.38715740E+000    1.32453240E+001    1.10967871E-003    1.08435711E-003   -1.82087321E+001   -9.69736542E+001   -1.82087321E+001
    1.38000000E+002    0.00000000E+000    2.93984649E+000    4.81303255E+000    1.20836113E-003    9.63701068E-004   -2.57634461E+001   -9.70069066E+001   -2.57634458E+001
    1.39000000E+002    0.00000000E+000    3.36236273E+000   -3.16463285E+000    1.30660273E-003    8.28388956E-004   -2.75008567E+001   -9.69985834E+001   -2.75008562E+001
    1.40000000E+002    0.00000000E+000    3.63768089E+000   -1.02772529E+001    1.40168239E-003    6.83391058E-004   -2.00386452E+001   -9.69296412E+001   -2.00386451E+001
    1.41000000E+002    0.00000000E+000    3.75924851E+000   -1.62251997E+001    1.49100439E-003    5.33815770E-004   -1.63579137E+001   -9.67954392E+001   -1.63579137E+001
    1.42000000E+002    0.00000000E+000    3.73006631E+000   -2.08216410E+001    1.57222476E-003    3.84623229E-004   -1.42813218E+001   -9.66060829E+001   -1.42813217E+001
    1.43000000E+002    0.00000000E+000    3.56119019E+000   -2.39861797E+001    1.64335118E-003    2.40384560E-004   -1.30948941E+001   -9.63822536E+001   -1.30948941E+001
    1.44000000E+002    0.00000000E+000    3.26988136E+000   -2.57322350E+001    1.70281265E-003    1.05095457E-004   -1.25096887E+001   -9.61489579E+001   -1.25096886E+001
    1.45000000E+002    0.00000000E+000    2.87761807E+000   -2.61503388E+001    1.74949760E-003   -1.79525117E-005   -1.23869873E+001   -9.59300826E+001   -1.23869872E+001
    1.46000000E+002    0.00000000E+000    2.40815255E+000   -2.53893886E+001    1.78276217E-003   -1.26244050E-004   -1.26568664E+001   -9.57452151E+001   -1.26568664E+001
    1.47000000E+002    0.00000000E+000    1.88575560E+000   -2.36376180E+001    1.80241188E-003   -2.18060487E-004   -1.32891797E+001   -9.56086201E+001   -1.32891797E+001
    1.48000000E+002    0.00000000E+000    1.33374676E+000   -2.11046929E+001    1.80866198E-003   -2.92455654E-004   -1.42839158E+001   -9.55295672E+001   -1.42839157E+001
    1.49000000E+002    0.00000000E+000    7.73363675E-001   -1.80059443E+001    1.80208219E-003   -3.49196126E-004   -1.56724847E+001   -9.55132320E+001   -1.56724846E+001
    1.50000000E+002    0.00000000E+000    2.22985524E-001   -1.45493665E+001    1.78353178E-003   -3.88675244E-004   -1.75309053E+001   -9.55616865E+001   -1.75309052E+001
    1.51000000E+002    0.00000000E+000   -3.02306609E-001   -1.09256689E+001    1.75409076E-003   -4.11810199E-004   -2.00165226E+001   -9.56747572E+001   -2.00165224E+001
    1.52000000E+002    0.00000000E+000   -7.90872277E-001   -7.30137980E+000    1.71499191E-003   -4.19930684E-004   -2.34700497E+001   -9.58506879E+001   -2.34700495E+001
    1.53000000E+002    0.00000000E+000   -1.23441147E+000   -3.81478569E+000    1.66755768E-003   -4.14666497E-004   -2.87269293E+001   -9.60866182E+001   -2.87269285E+001
    1.54000000E+002    0.00000000E+000   -1.62768241E+000   -5.74342003E-001    1.61314443E-003   -3.97840074E-004   -3.60477830E+001   -9.63789110E+001   -3.60477790E+001
    1.55000000E+002    0.00000000E+000   -1.96809787E+000    2.34089620E+000    1.55309591E-003   -3.71368485E-004   -3.10792028E+001   -9.67233686E+001   -3.10792016E+001
    1.56000000E+002    0.00000000E+000   -2.25525564E+000    4.87930408E+000    1.48870627E-003   -3.37177992E-004   -2.61807624E+001   -9.71153682E+001   -2.61807620E+001
    1.57000000E+002    0.00000000E+000   -2.49045013E+000    7.01364714E+000    1.42119274E-003   -2.97132968E-004   -2.33542120E+001   -9.75499427E+001   -2.33542118E+001
    1.58000000E+002    0.00000000E+000   -2.67620229E+000    8.73739841E+000    1.35167688E-003   -2.52979832E-004   -2.15717243E+001   -9.80218246E+001   -2.15717242E+001
    1.59000000E+002    0.00000000E+000   -2.81583423E+000    1.00607777E+001    1.28117344E-003   -2.06305753E-004   -2.04086423E+001   -9.85254700E+001   -2.04086423E+001
    1.60000000E+002    0.00000000E+000   -2.91310533E+000    1.10068064E+001    1.21058529E-003   -1.58511162E-004   -1.96615517E+001   -9.90550718E+001   -1.96615517E+001
    1.61000000E+002    0.00000000E+000   -2.97191752E+000    1.16075976E+001    1.14070325E-003   -1.10794624E-004   -1.92182118E+001   -9.96045745E+001   -1.92182118E+001
    1.62000000E+002    0.00000000E+000   -2.99609077E+000    1.19010327E+001    1.07220923E-003   -6.41483030E-005   -1.90102360E+001   -1.00167699E+002   -1.90102360E+001
    1.63000000E+002    0.00000000E+000   -2.98920445E+000    1.19279131E+001    1.00568189E-003   -1.93621315E-005   -1.89929887E+001   -1.00737985E+002   -1.89929887E+001
    1.64000000E+002    0.00000000E+000   -2.95449678E+000    1.17296268E+001    9.41603683E-004    2.29652325E-005   -1.91359719E+001   -1.01308861E+002   -1.91359719E+001
    1.65000000E+002    0.00000000E+000   -2.89481259E+000    1.13463267E+001    8.80368624E-004    6.24104731E-005   -1.94178284E+001   -1.01873745E+002   -1.94178284E+001
    1.66000000E+002    0.00000000E+000   -2.81258924E+000    1.08155909E+001    8.22290472E-004    9.87063684E-005   -1.98236115E+001   -1.02426170E+002   -1.98236115E+001
    1.67000000E+002    0.00000000E+000   -2.70987069E+000    1.01715151E+001    7.67610837E-004    1.31720672E-004   -2.03432871E+001   -1.02959949E+002   -2.03432871E+001
    1.68000000E+002    0.00000000E+000   -2.58834078E+000    9.44417427E+000    7.16507166E-004    1.61434343E-004   -2.09709861E+001   -1.03469347E+002   -2.09709861E+001
    1.69000000E+002    0.00000000E+000   -2.44936853E+000    8.65939036E+000    6.69100516E-004    1.87920101E-004   -2.17047907E+001   -1.03949251E+002   -2.17047907E+001